ITEM: TIMESTEP
0
ITEM: NUMBER OF ATOMS
768
ITEM: BOX BOUNDS pp pp pp
0.0000000000000000e+00 2.1856000000000002e+01
0.0000000000000000e+00 2.1856000000000002e+01
0.0000000000000000e+00 2.1856000000000002e+01
ITEM: ATOMS id type q x y z
1 1 2 0 0 0
2 2 -1 1.366 1.366 1.366
3 2 -1 4.098 4.098 4.098
4 1 2 0 2.732 2.732
5 2 -1 1.366 4.098 4.098
6 2 -1 4.098 1.366 1.366
7 1 2 2.732 0 2.732
8 2 -1 4.098 1.366 4.098
9 2 -1 1.366 4.098 1.366
10 1 2 2.732 2.732 0
11 2 -1 4.098 4.098 1.366
12 2 -1 1.366 1.366 4.098
13 1 2 0 0 5.464
14 2 -1 1.366 1.366 6.83
18 2 -1 4.098 1.366 6.83
21 2 -1 1.366 4.098 6.83
22 1 2 2.732 2.732 5.464
23 2 -1 4.098 4.098 6.83
49 1 2 0 5.464 0
50 2 -1 1.366 6.83 1.366
54 2 -1 4.098 6.83 1.366
55 1 2 2.732 5.464 2.732
56 2 -1 4.098 6.83 4.098
60 2 -1 1.366 6.83 4.098
61 1 2 0 5.464 5.464
62 2 -1 1.366 6.83 6.83
66 2 -1 4.098 6.83 6.83
193 1 2 5.464 0 0
194 2 -1 6.83 1.366 1.366
196 1 2 5.464 2.732 2.732
197 2 -1 6.83 4.098 4.098
201 2 -1 6.83 4.098 1.366
204 2 -1 6.83 1.366 4.098
205 1 2 5.464 0 5.464
206 2 -1 6.83 1.366 6.83
213 2 -1 6.83 4.098 6.83
241 1 2 5.464 5.464 0
242 2 -1 6.83 6.83 1.366
252 2 -1 6.83 6.83 4.098
253 1 2 5.464 5.464 5.464
254 2 -1 6.83 6.83 6.83
195 2 -1 9.562 4.098 4.098
198 2 -1 9.562 1.366 1.366
199 1 2 8.196 0 2.732
200 2 -1 9.562 1.366 4.098
202 1 2 8.196 2.732 0
203 2 -1 9.562 4.098 1.366
210 2 -1 9.562 1.366 6.83
214 1 2 8.196 2.732 5.464
215 2 -1 9.562 4.098 6.83
246 2 -1 9.562 6.83 1.366
247 1 2 8.196 5.464 2.732
248 2 -1 9.562 6.83 4.098
258 2 -1 9.562 6.83 6.83
385 1 2 10.928 0 0
386 2 -1 12.294 1.366 1.366
388 1 2 10.928 2.732 2.732
389 2 -1 12.294 4.098 4.098
391 1 2 13.66 0 2.732
393 2 -1 12.294 4.098 1.366
394 1 2 13.66 2.732 0
396 2 -1 12.294 1.366 4.098
397 1 2 10.928 0 5.464
398 2 -1 12.294 1.366 6.83
405 2 -1 12.294 4.098 6.83
406 1 2 13.66 2.732 5.464
433 1 2 10.928 5.464 0
434 2 -1 12.294 6.83 1.366
439 1 2 13.66 5.464 2.732
444 2 -1 12.294 6.83 4.098
445 1 2 10.928 5.464 5.464
446 2 -1 12.294 6.83 6.83
387 2 -1 15.026 4.098 4.098
390 2 -1 15.026 1.366 1.366
392 2 -1 15.026 1.366 4.098
395 2 -1 15.026 4.098 1.366
402 2 -1 15.026 1.366 6.83
407 2 -1 15.026 4.098 6.83
438 2 -1 15.026 6.83 1.366
440 2 -1 15.026 6.83 4.098
450 2 -1 15.026 6.83 6.83
577 1 2 16.392 0 0
578 2 -1 17.758 1.366 1.366
579 2 -1 20.49 4.098 4.098
580 1 2 16.392 2.732 2.732
581 2 -1 17.758 4.098 4.098
582 2 -1 20.49 1.366 1.366
583 1 2 19.124 0 2.732
584 2 -1 20.49 1.366 4.098
585 2 -1 17.758 4.098 1.366
586 1 2 19.124 2.732 0
587 2 -1 20.49 4.098 1.366
588 2 -1 17.758 1.366 4.098
589 1 2 16.392 0 5.464
590 2 -1 17.758 1.366 6.83
594 2 -1 20.49 1.366 6.83
597 2 -1 17.758 4.098 6.83
598 1 2 19.124 2.732 5.464
599 2 -1 20.49 4.098 6.83
625 1 2 16.392 5.464 0
626 2 -1 17.758 6.83 1.366
630 2 -1 20.49 6.83 1.366
631 1 2 19.124 5.464 2.732
632 2 -1 20.49 6.83 4.098
636 2 -1 17.758 6.83 4.098
637 1 2 16.392 5.464 5.464
638 2 -1 17.758 6.83 6.83
642 2 -1 20.49 6.83 6.83
51 2 -1 4.098 9.562 4.098
52 1 2 0 8.196 2.732
53 2 -1 1.366 9.562 4.098
57 2 -1 1.366 9.562 1.366
58 1 2 2.732 8.196 0
59 2 -1 4.098 9.562 1.366
69 2 -1 1.366 9.562 6.83
70 1 2 2.732 8.196 5.464
71 2 -1 4.098 9.562 6.83
97 1 2 0 10.928 0
98 2 -1 1.366 12.294 1.366
100 1 2 0 13.66 2.732
102 2 -1 4.098 12.294 1.366
103 1 2 2.732 10.928 2.732
104 2 -1 4.098 12.294 4.098
106 1 2 2.732 13.66 0
108 2 -1 1.366 12.294 4.098
109 1 2 0 10.928 5.464
110 2 -1 1.366 12.294 6.83
114 2 -1 4.098 12.294 6.83
118 1 2 2.732 13.66 5.464
244 1 2 5.464 8.196 2.732
245 2 -1 6.83 9.562 4.098
249 2 -1 6.83 9.562 1.366
261 2 -1 6.83 9.562 6.83
289 1 2 5.464 10.928 0
290 2 -1 6.83 12.294 1.366
292 1 2 5.464 13.66 2.732
300 2 -1 6.83 12.294 4.098
301 1 2 5.464 10.928 5.464
302 2 -1 6.83 12.294 6.83
243 2 -1 9.562 9.562 4.098
250 1 2 8.196 8.196 0
251 2 -1 9.562 9.562 1.366
262 1 2 8.196 8.196 5.464
263 2 -1 9.562 9.562 6.83
294 2 -1 9.562 12.294 1.366
295 1 2 8.196 10.928 2.732
296 2 -1 9.562 12.294 4.098
298 1 2 8.196 13.66 0
306 2 -1 9.562 12.294 6.83
310 1 2 8.196 13.66 5.464
436 1 2 10.928 8.196 2.732
437 2 -1 12.294 9.562 4.098
441 2 -1 12.294 9.562 1.366
442 1 2 13.66 8.196 0
453 2 -1 12.294 9.562 6.83
454 1 2 13.66 8.196 5.464
481 1 2 10.928 10.928 0
482 2 -1 12.294 12.294 1.366
484 1 2 10.928 13.66 2.732
487 1 2 13.66 10.928 2.732
490 1 2 13.66 13.66 0
492 2 -1 12.294 12.294 4.098
493 1 2 10.928 10.928 5.464
494 2 -1 12.294 12.294 6.83
502 1 2 13.66 13.66 5.464
435 2 -1 15.026 9.562 4.098
443 2 -1 15.026 9.562 1.366
455 2 -1 15.026 9.562 6.83
486 2 -1 15.026 12.294 1.366
488 2 -1 15.026 12.294 4.098
498 2 -1 15.026 12.294 6.83
627 2 -1 20.49 9.562 4.098
628 1 2 16.392 8.196 2.732
629 2 -1 17.758 9.562 4.098
633 2 -1 17.758 9.562 1.366
634 1 2 19.124 8.196 0
635 2 -1 20.49 9.562 1.366
645 2 -1 17.758 9.562 6.83
646 1 2 19.124 8.196 5.464
647 2 -1 20.49 9.562 6.83
673 1 2 16.392 10.928 0
674 2 -1 17.758 12.294 1.366
676 1 2 16.392 13.66 2.732
678 2 -1 20.49 12.294 1.366
679 1 2 19.124 10.928 2.732
680 2 -1 20.49 12.294 4.098
682 1 2 19.124 13.66 0
684 2 -1 17.758 12.294 4.098
685 1 2 16.392 10.928 5.464
686 2 -1 17.758 12.294 6.83
690 2 -1 20.49 12.294 6.83
694 1 2 19.124 13.66 5.464
99 2 -1 4.098 15.026 4.098
101 2 -1 1.366 15.026 4.098
105 2 -1 1.366 15.026 1.366
107 2 -1 4.098 15.026 1.366
117 2 -1 1.366 15.026 6.83
119 2 -1 4.098 15.026 6.83
145 1 2 0 16.392 0
146 2 -1 1.366 17.758 1.366
147 2 -1 4.098 20.49 4.098
148 1 2 0 19.124 2.732
149 2 -1 1.366 20.49 4.098
150 2 -1 4.098 17.758 1.366
151 1 2 2.732 16.392 2.732
152 2 -1 4.098 17.758 4.098
153 2 -1 1.366 20.49 1.366
154 1 2 2.732 19.124 0
155 2 -1 4.098 20.49 1.366
156 2 -1 1.366 17.758 4.098
157 1 2 0 16.392 5.464
158 2 -1 1.366 17.758 6.83
162 2 -1 4.098 17.758 6.83
165 2 -1 1.366 20.49 6.83
166 1 2 2.732 19.124 5.464
167 2 -1 4.098 20.49 6.83
293 2 -1 6.83 15.026 4.098
297 2 -1 6.83 15.026 1.366
309 2 -1 6.83 15.026 6.83
337 1 2 5.464 16.392 0
338 2 -1 6.83 17.758 1.366
340 1 2 5.464 19.124 2.732
341 2 -1 6.83 20.49 4.098
345 2 -1 6.83 20.49 1.366
348 2 -1 6.83 17.758 4.098
349 1 2 5.464 16.392 5.464
350 2 -1 6.83 17.758 6.83
357 2 -1 6.83 20.49 6.83
291 2 -1 9.562 15.026 4.098
299 2 -1 9.562 15.026 1.366
311 2 -1 9.562 15.026 6.83
339 2 -1 9.562 20.49 4.098
342 2 -1 9.562 17.758 1.366
343 1 2 8.196 16.392 2.732
344 2 -1 9.562 17.758 4.098
346 1 2 8.196 19.124 0
347 2 -1 9.562 20.49 1.366
354 2 -1 9.562 17.758 6.83
358 1 2 8.196 19.124 5.464
359 2 -1 9.562 20.49 6.83
485 2 -1 12.294 15.026 4.098
489 2 -1 12.294 15.026 1.366
501 2 -1 12.294 15.026 6.83
529 1 2 10.928 16.392 0
530 2 -1 12.294 17.758 1.366
532 1 2 10.928 19.124 2.732
533 2 -1 12.294 20.49 4.098
535 1 2 13.66 16.392 2.732
537 2 -1 12.294 20.49 1.366
538 1 2 13.66 19.124 0
540 2 -1 12.294 17.758 4.098
541 1 2 10.928 16.392 5.464
542 2 -1 12.294 17.758 6.83
549 2 -1 12.294 20.49 6.83
550 1 2 13.66 19.124 5.464
483 2 -1 15.026 15.026 4.098
491 2 -1 15.026 15.026 1.366
503 2 -1 15.026 15.026 6.83
531 2 -1 15.026 20.49 4.098
534 2 -1 15.026 17.758 1.366
536 2 -1 15.026 17.758 4.098
539 2 -1 15.026 20.49 1.366
546 2 -1 15.026 17.758 6.83
551 2 -1 15.026 20.49 6.83
675 2 -1 20.49 15.026 4.098
677 2 -1 17.758 15.026 4.098
681 2 -1 17.758 15.026 1.366
683 2 -1 20.49 15.026 1.366
693 2 -1 17.758 15.026 6.83
695 2 -1 20.49 15.026 6.83
721 1 2 16.392 16.392 0
722 2 -1 17.758 17.758 1.366
723 2 -1 20.49 20.49 4.098
724 1 2 16.392 19.124 2.732
725 2 -1 17.758 20.49 4.098
726 2 -1 20.49 17.758 1.366
727 1 2 19.124 16.392 2.732
728 2 -1 20.49 17.758 4.098
729 2 -1 17.758 20.49 1.366
730 1 2 19.124 19.124 0
731 2 -1 20.49 20.49 1.366
732 2 -1 17.758 17.758 4.098
733 1 2 16.392 16.392 5.464
734 2 -1 17.758 17.758 6.83
738 2 -1 20.49 17.758 6.83
741 2 -1 17.758 20.49 6.83
742 1 2 19.124 19.124 5.464
743 2 -1 20.49 20.49 6.83
15 2 -1 4.098 4.098 9.562
16 1 2 0 2.732 8.196
17 2 -1 1.366 4.098 9.562
19 1 2 2.732 0 8.196
20 2 -1 4.098 1.366 9.562
24 2 -1 1.366 1.366 9.562
25 1 2 0 0 10.928
26 2 -1 1.366 1.366 12.294
28 1 2 0 2.732 13.66
30 2 -1 4.098 1.366 12.294
31 1 2 2.732 0 13.66
33 2 -1 1.366 4.098 12.294
34 1 2 2.732 2.732 10.928
35 2 -1 4.098 4.098 12.294
67 1 2 2.732 5.464 8.196
68 2 -1 4.098 6.83 9.562
72 2 -1 1.366 6.83 9.562
73 1 2 0 5.464 10.928
74 2 -1 1.366 6.83 12.294
78 2 -1 4.098 6.83 12.294
79 1 2 2.732 5.464 13.66
208 1 2 5.464 2.732 8.196
209 2 -1 6.83 4.098 9.562
216 2 -1 6.83 1.366 9.562
217 1 2 5.464 0 10.928
218 2 -1 6.83 1.366 12.294
220 1 2 5.464 2.732 13.66
225 2 -1 6.83 4.098 12.294
264 2 -1 6.83 6.83 9.562
265 1 2 5.464 5.464 10.928
266 2 -1 6.83 6.83 12.294
207 2 -1 9.562 4.098 9.562
211 1 2 8.196 0 8.196
212 2 -1 9.562 1.366 9.562
222 2 -1 9.562 1.366 12.294
223 1 2 8.196 0 13.66
226 1 2 8.196 2.732 10.928
227 2 -1 9.562 4.098 12.294
259 1 2 8.196 5.464 8.196
260 2 -1 9.562 6.83 9.562
270 2 -1 9.562 6.83 12.294
271 1 2 8.196 5.464 13.66
400 1 2 10.928 2.732 8.196
401 2 -1 12.294 4.098 9.562
403 1 2 13.66 0 8.196
408 2 -1 12.294 1.366 9.562
409 1 2 10.928 0 10.928
410 2 -1 12.294 1.366 12.294
412 1 2 10.928 2.732 13.66
415 1 2 13.66 0 13.66
417 2 -1 12.294 4.098 12.294
418 1 2 13.66 2.732 10.928
451 1 2 13.66 5.464 8.196
456 2 -1 12.294 6.83 9.562
457 1 2 10.928 5.464 10.928
458 2 -1 12.294 6.83 12.294
463 1 2 13.66 5.464 13.66
399 2 -1 15.026 4.098 9.562
404 2 -1 15.026 1.366 9.562
414 2 -1 15.026 1.366 12.294
419 2 -1 15.026 4.098 12.294
452 2 -1 15.026 6.83 9.562
462 2 -1 15.026 6.83 12.294
591 2 -1 20.49 4.098 9.562
592 1 2 16.392 2.732 8.196
593 2 -1 17.758 4.098 9.562
595 1 2 19.124 0 8.196
596 2 -1 20.49 1.366 9.562
600 2 -1 17.758 1.366 9.562
601 1 2 16.392 0 10.928
602 2 -1 17.758 1.366 12.294
604 1 2 16.392 2.732 13.66
606 2 -1 20.49 1.366 12.294
607 1 2 19.124 0 13.66
609 2 -1 17.758 4.098 12.294
610 1 2 19.124 2.732 10.928
611 2 -1 20.49 4.098 12.294
643 1 2 19.124 5.464 8.196
644 2 -1 20.49 6.83 9.562
648 2 -1 17.758 6.83 9.562
649 1 2 16.392 5.464 10.928
650 2 -1 17.758 6.83 12.294
654 2 -1 20.49 6.83 12.294
655 1 2 19.124 5.464 13.66
63 2 -1 4.098 9.562 9.562
64 1 2 0 8.196 8.196
65 2 -1 1.366 9.562 9.562
76 1 2 0 8.196 13.66
81 2 -1 1.366 9.562 12.294
82 1 2 2.732 8.196 10.928
83 2 -1 4.098 9.562 12.294
112 1 2 0 13.66 8.196
115 1 2 2.732 10.928 8.196
116 2 -1 4.098 12.294 9.562
120 2 -1 1.366 12.294 9.562
121 1 2 0 10.928 10.928
122 2 -1 1.366 12.294 12.294
124 1 2 0 13.66 13.66
126 2 -1 4.098 12.294 12.294
127 1 2 2.732 10.928 13.66
130 1 2 2.732 13.66 10.928
256 1 2 5.464 8.196 8.196
257 2 -1 6.83 9.562 9.562
268 1 2 5.464 8.196 13.66
273 2 -1 6.83 9.562 12.294
304 1 2 5.464 13.66 8.196
312 2 -1 6.83 12.294 9.562
313 1 2 5.464 10.928 10.928
314 2 -1 6.83 12.294 12.294
316 1 2 5.464 13.66 13.66
255 2 -1 9.562 9.562 9.562
274 1 2 8.196 8.196 10.928
275 2 -1 9.562 9.562 12.294
307 1 2 8.196 10.928 8.196
308 2 -1 9.562 12.294 9.562
318 2 -1 9.562 12.294 12.294
319 1 2 8.196 10.928 13.66
322 1 2 8.196 13.66 10.928
448 1 2 10.928 8.196 8.196
449 2 -1 12.294 9.562 9.562
460 1 2 10.928 8.196 13.66
465 2 -1 12.294 9.562 12.294
466 1 2 13.66 8.196 10.928
496 1 2 10.928 13.66 8.196
499 1 2 13.66 10.928 8.196
504 2 -1 12.294 12.294 9.562
505 1 2 10.928 10.928 10.928
506 2 -1 12.294 12.294 12.294
508 1 2 10.928 13.66 13.66
511 1 2 13.66 10.928 13.66
514 1 2 13.66 13.66 10.928
447 2 -1 15.026 9.562 9.562
467 2 -1 15.026 9.562 12.294
500 2 -1 15.026 12.294 9.562
510 2 -1 15.026 12.294 12.294
639 2 -1 20.49 9.562 9.562
640 1 2 16.392 8.196 8.196
641 2 -1 17.758 9.562 9.562
652 1 2 16.392 8.196 13.66
657 2 -1 17.758 9.562 12.294
658 1 2 19.124 8.196 10.928
659 2 -1 20.49 9.562 12.294
688 1 2 16.392 13.66 8.196
691 1 2 19.124 10.928 8.196
692 2 -1 20.49 12.294 9.562
696 2 -1 17.758 12.294 9.562
697 1 2 16.392 10.928 10.928
698 2 -1 17.758 12.294 12.294
700 1 2 16.392 13.66 13.66
702 2 -1 20.49 12.294 12.294
703 1 2 19.124 10.928 13.66
706 1 2 19.124 13.66 10.928
111 2 -1 4.098 15.026 9.562
113 2 -1 1.366 15.026 9.562
129 2 -1 1.366 15.026 12.294
131 2 -1 4.098 15.026 12.294
159 2 -1 4.098 20.49 9.562
160 1 2 0 19.124 8.196
161 2 -1 1.366 20.49 9.562
163 1 2 2.732 16.392 8.196
164 2 -1 4.098 17.758 9.562
168 2 -1 1.366 17.758 9.562
169 1 2 0 16.392 10.928
170 2 -1 1.366 17.758 12.294
172 1 2 0 19.124 13.66
174 2 -1 4.098 17.758 12.294
175 1 2 2.732 16.392 13.66
177 2 -1 1.366 20.49 12.294
178 1 2 2.732 19.124 10.928
179 2 -1 4.098 20.49 12.294
305 2 -1 6.83 15.026 9.562
321 2 -1 6.83 15.026 12.294
352 1 2 5.464 19.124 8.196
353 2 -1 6.83 20.49 9.562
360 2 -1 6.83 17.758 9.562
361 1 2 5.464 16.392 10.928
362 2 -1 6.83 17.758 12.294
364 1 2 5.464 19.124 13.66
369 2 -1 6.83 20.49 12.294
303 2 -1 9.562 15.026 9.562
323 2 -1 9.562 15.026 12.294
351 2 -1 9.562 20.49 9.562
355 1 2 8.196 16.392 8.196
356 2 -1 9.562 17.758 9.562
366 2 -1 9.562 17.758 12.294
367 1 2 8.196 16.392 13.66
370 1 2 8.196 19.124 10.928
371 2 -1 9.562 20.49 12.294
497 2 -1 12.294 15.026 9.562
513 2 -1 12.294 15.026 12.294
544 1 2 10.928 19.124 8.196
545 2 -1 12.294 20.49 9.562
547 1 2 13.66 16.392 8.196
552 2 -1 12.294 17.758 9.562
553 1 2 10.928 16.392 10.928
554 2 -1 12.294 17.758 12.294
556 1 2 10.928 19.124 13.66
559 1 2 13.66 16.392 13.66
561 2 -1 12.294 20.49 12.294
562 1 2 13.66 19.124 10.928
495 2 -1 15.026 15.026 9.562
515 2 -1 15.026 15.026 12.294
543 2 -1 15.026 20.49 9.562
548 2 -1 15.026 17.758 9.562
558 2 -1 15.026 17.758 12.294
563 2 -1 15.026 20.49 12.294
687 2 -1 20.49 15.026 9.562
689 2 -1 17.758 15.026 9.562
705 2 -1 17.758 15.026 12.294
707 2 -1 20.49 15.026 12.294
735 2 -1 20.49 20.49 9.562
736 1 2 16.392 19.124 8.196
737 2 -1 17.758 20.49 9.562
739 1 2 19.124 16.392 8.196
740 2 -1 20.49 17.758 9.562
744 2 -1 17.758 17.758 9.562
745 1 2 16.392 16.392 10.928
746 2 -1 17.758 17.758 12.294
748 1 2 16.392 19.124 13.66
750 2 -1 20.49 17.758 12.294
751 1 2 19.124 16.392 13.66
753 2 -1 17.758 20.49 12.294
754 1 2 19.124 19.124 10.928
755 2 -1 20.49 20.49 12.294
27 2 -1 4.098 4.098 15.026
29 2 -1 1.366 4.098 15.026
32 2 -1 4.098 1.366 15.026
36 2 -1 1.366 1.366 15.026
37 1 2 0 0 16.392
38 2 -1 1.366 1.366 17.758
39 2 -1 4.098 4.098 20.49
40 1 2 0 2.732 19.124
41 2 -1 1.366 4.098 20.49
42 2 -1 4.098 1.366 17.758
43 1 2 2.732 0 19.124
44 2 -1 4.098 1.366 20.49
45 2 -1 1.366 4.098 17.758
46 1 2 2.732 2.732 16.392
47 2 -1 4.098 4.098 17.758
48 2 -1 1.366 1.366 20.49
80 2 -1 4.098 6.83 15.026
84 2 -1 1.366 6.83 15.026
85 1 2 0 5.464 16.392
86 2 -1 1.366 6.83 17.758
90 2 -1 4.098 6.83 17.758
91 1 2 2.732 5.464 19.124
92 2 -1 4.098 6.83 20.49
96 2 -1 1.366 6.83 20.49
221 2 -1 6.83 4.098 15.026
228 2 -1 6.83 1.366 15.026
229 1 2 5.464 0 16.392
230 2 -1 6.83 1.366 17.758
232 1 2 5.464 2.732 19.124
233 2 -1 6.83 4.098 20.49
237 2 -1 6.83 4.098 17.758
240 2 -1 6.83 1.366 20.49
276 2 -1 6.83 6.83 15.026
277 1 2 5.464 5.464 16.392
278 2 -1 6.83 6.83 17.758
288 2 -1 6.83 6.83 20.49
219 2 -1 9.562 4.098 15.026
224 2 -1 9.562 1.366 15.026
231 2 -1 9.562 4.098 20.49
234 2 -1 9.562 1.366 17.758
235 1 2 8.196 0 19.124
236 2 -1 9.562 1.366 20.49
238 1 2 8.196 2.732 16.392
239 2 -1 9.562 4.098 17.758
272 2 -1 9.562 6.83 15.026
282 2 -1 9.562 6.83 17.758
283 1 2 8.196 5.464 19.124
284 2 -1 9.562 6.83 20.49
413 2 -1 12.294 4.098 15.026
420 2 -1 12.294 1.366 15.026
421 1 2 10.928 0 16.392
422 2 -1 12.294 1.366 17.758
424 1 2 10.928 2.732 19.124
425 2 -1 12.294 4.098 20.49
427 1 2 13.66 0 19.124
429 2 -1 12.294 4.098 17.758
430 1 2 13.66 2.732 16.392
432 2 -1 12.294 1.366 20.49
468 2 -1 12.294 6.83 15.026
469 1 2 10.928 5.464 16.392
470 2 -1 12.294 6.83 17.758
475 1 2 13.66 5.464 19.124
480 2 -1 12.294 6.83 20.49
411 2 -1 15.026 4.098 15.026
416 2 -1 15.026 1.366 15.026
423 2 -1 15.026 4.098 20.49
426 2 -1 15.026 1.366 17.758
428 2 -1 15.026 1.366 20.49
431 2 -1 15.026 4.098 17.758
464 2 -1 15.026 6.83 15.026
474 2 -1 15.026 6.83 17.758
476 2 -1 15.026 6.83 20.49
603 2 -1 20.49 4.098 15.026
605 2 -1 17.758 4.098 15.026
608 2 -1 20.49 1.366 15.026
612 2 -1 17.758 1.366 15.026
613 1 2 16.392 0 16.392
614 2 -1 17.758 1.366 17.758
615 2 -1 20.49 4.098 20.49
616 1 2 16.392 2.732 19.124
617 2 -1 17.758 4.098 20.49
618 2 -1 20.49 1.366 17.758
619 1 2 19.124 0 19.124
620 2 -1 20.49 1.366 20.49
621 2 -1 17.758 4.098 17.758
622 1 2 19.124 2.732 16.392
623 2 -1 20.49 4.098 17.758
624 2 -1 17.758 1.366 20.49
656 2 -1 20.49 6.83 15.026
660 2 -1 17.758 6.83 15.026
661 1 2 16.392 5.464 16.392
662 2 -1 17.758 6.83 17.758
666 2 -1 20.49 6.83 17.758
667 1 2 19.124 5.464 19.124
668 2 -1 20.49 6.83 20.49
672 2 -1 17.758 6.83 20.49
75 2 -1 4.098 9.562 15.026
77 2 -1 1.366 9.562 15.026
87 2 -1 4.098 9.562 20.49
88 1 2 0 8.196 19.124
89 2 -1 1.366 9.562 20.49
93 2 -1 1.366 9.562 17.758
94 1 2 2.732 8.196 16.392
95 2 -1 4.098 9.562 17.758
128 2 -1 4.098 12.294 15.026
132 2 -1 1.366 12.294 15.026
133 1 2 0 10.928 16.392
134 2 -1 1.366 12.294 17.758
136 1 2 0 13.66 19.124
138 2 -1 4.098 12.294 17.758
139 1 2 2.732 10.928 19.124
140 2 -1 4.098 12.294 20.49
142 1 2 2.732 13.66 16.392
144 2 -1 1.366 12.294 20.49
269 2 -1 6.83 9.562 15.026
280 1 2 5.464 8.196 19.124
281 2 -1 6.83 9.562 20.49
285 2 -1 6.83 9.562 17.758
324 2 -1 6.83 12.294 15.026
325 1 2 5.464 10.928 16.392
326 2 -1 6.83 12.294 17.758
328 1 2 5.464 13.66 19.124
336 2 -1 6.83 12.294 20.49
267 2 -1 9.562 9.562 15.026
279 2 -1 9.562 9.562 20.49
286 1 2 8.196 8.196 16.392
287 2 -1 9.562 9.562 17.758
320 2 -1 9.562 12.294 15.026
330 2 -1 9.562 12.294 17.758
331 1 2 8.196 10.928 19.124
332 2 -1 9.562 12.294 20.49
334 1 2 8.196 13.66 16.392
461 2 -1 12.294 9.562 15.026
472 1 2 10.928 8.196 19.124
473 2 -1 12.294 9.562 20.49
477 2 -1 12.294 9.562 17.758
478 1 2 13.66 8.196 16.392
516 2 -1 12.294 12.294 15.026
517 1 2 10.928 10.928 16.392
518 2 -1 12.294 12.294 17.758
520 1 2 10.928 13.66 19.124
523 1 2 13.66 10.928 19.124
526 1 2 13.66 13.66 16.392
528 2 -1 12.294 12.294 20.49
459 2 -1 15.026 9.562 15.026
471 2 -1 15.026 9.562 20.49
479 2 -1 15.026 9.562 17.758
512 2 -1 15.026 12.294 15.026
522 2 -1 15.026 12.294 17.758
524 2 -1 15.026 12.294 20.49
651 2 -1 20.49 9.562 15.026
653 2 -1 17.758 9.562 15.026
663 2 -1 20.49 9.562 20.49
664 1 2 16.392 8.196 19.124
665 2 -1 17.758 9.562 20.49
669 2 -1 17.758 9.562 17.758
670 1 2 19.124 8.196 16.392
671 2 -1 20.49 9.562 17.758
704 2 -1 20.49 12.294 15.026
708 2 -1 17.758 12.294 15.026
709 1 2 16.392 10.928 16.392
710 2 -1 17.758 12.294 17.758
712 1 2 16.392 13.66 19.124
714 2 -1 20.49 12.294 17.758
715 1 2 19.124 10.928 19.124
716 2 -1 20.49 12.294 20.49
718 1 2 19.124 13.66 16.392
720 2 -1 17.758 12.294 20.49
123 2 -1 4.098 15.026 15.026
125 2 -1 1.366 15.026 15.026
135 2 -1 4.098 15.026 20.49
137 2 -1 1.366 15.026 20.49
141 2 -1 1.366 15.026 17.758
143 2 -1 4.098 15.026 17.758
171 2 -1 4.098 20.49 15.026
173 2 -1 1.366 20.49 15.026
176 2 -1 4.098 17.758 15.026
180 2 -1 1.366 17.758 15.026
181 1 2 0 16.392 16.392
182 2 -1 1.366 17.758 17.758
183 2 -1 4.098 20.49 20.49
184 1 2 0 19.124 19.124
185 2 -1 1.366 20.49 20.49
186 2 -1 4.098 17.758 17.758
187 1 2 2.732 16.392 19.124
188 2 -1 4.098 17.758 20.49
189 2 -1 1.366 20.49 17.758
190 1 2 2.732 19.124 16.392
191 2 -1 4.098 20.49 17.758
192 2 -1 1.366 17.758 20.49
317 2 -1 6.83 15.026 15.026
329 2 -1 6.83 15.026 20.49
333 2 -1 6.83 15.026 17.758
365 2 -1 6.83 20.49 15.026
372 2 -1 6.83 17.758 15.026
373 1 2 5.464 16.392 16.392
374 2 -1 6.83 17.758 17.758
376 1 2 5.464 19.124 19.124
377 2 -1 6.83 20.49 20.49
381 2 -1 6.83 20.49 17.758
384 2 -1 6.83 17.758 20.49
315 2 -1 9.562 15.026 15.026
327 2 -1 9.562 15.026 20.49
335 2 -1 9.562 15.026 17.758
363 2 -1 9.562 20.49 15.026
368 2 -1 9.562 17.758 15.026
375 2 -1 9.562 20.49 20.49
378 2 -1 9.562 17.758 17.758
379 1 2 8.196 16.392 19.124
380 2 -1 9.562 17.758 20.49
382 1 2 8.196 19.124 16.392
383 2 -1 9.562 20.49 17.758
509 2 -1 12.294 15.026 15.026
521 2 -1 12.294 15.026 20.49
525 2 -1 12.294 15.026 17.758
557 2 -1 12.294 20.49 15.026
564 2 -1 12.294 17.758 15.026
565 1 2 10.928 16.392 16.392
566 2 -1 12.294 17.758 17.758
568 1 2 10.928 19.124 19.124
569 2 -1 12.294 20.49 20.49
571 1 2 13.66 16.392 19.124
573 2 -1 12.294 20.49 17.758
574 1 2 13.66 19.124 16.392
576 2 -1 12.294 17.758 20.49
507 2 -1 15.026 15.026 15.026
519 2 -1 15.026 15.026 20.49
527 2 -1 15.026 15.026 17.758
555 2 -1 15.026 20.49 15.026
560 2 -1 15.026 17.758 15.026
567 2 -1 15.026 20.49 20.49
570 2 -1 15.026 17.758 17.758
572 2 -1 15.026 17.758 20.49
575 2 -1 15.026 20.49 17.758
699 2 -1 20.49 15.026 15.026
701 2 -1 17.758 15.026 15.026
711 2 -1 20.49 15.026 20.49
713 2 -1 17.758 15.026 20.49
717 2 -1 17.758 15.026 17.758
719 2 -1 20.49 15.026 17.758
747 2 -1 20.49 20.49 15.026
749 2 -1 17.758 20.49 15.026
752 2 -1 20.49 17.758 15.026
756 2 -1 17.758 17.758 15.026
757 1 2 16.392 16.392 16.392
758 2 -1 17.758 17.758 17.758
759 2 -1 20.49 20.49 20.49
760 1 2 16.392 19.124 19.124
761 2 -1 17.758 20.49 20.49
762 2 -1 20.49 17.758 17.758
763 1 2 19.124 16.392 19.124
764 2 -1 20.49 17.758 20.49
765 2 -1 17.758 20.49 17.758
766 1 2 19.124 19.124 16.392
767 2 -1 20.49 20.49 17.758
768 2 -1 17.758 17.758 20.49
ITEM: TIMESTEP
200
ITEM: NUMBER OF ATOMS
768
ITEM: BOX BOUNDS pp pp pp
2.6209438749387792e-01 2.1593905612506109e+01
2.6209438749387792e-01 2.1593905612506109e+01
2.6209438749387792e-01 2.1593905612506109e+01
ITEM: ATOMS id type q x y z
1 1 2 21.446 21.5309 0.348758
2 2 -1 1.46547 1.66774 1.70259
3 2 -1 4.22049 4.35873 4.45968
4 1 2 21.4209 2.90571 3.0912
5 2 -1 1.6953 4.21347 4.2708
6 2 -1 4.22013 1.68397 1.76627
7 1 2 2.90894 0.276605 3.19019
8 2 -1 4.22359 1.33587 4.46462
9 2 -1 1.35689 4.12463 1.57442
10 1 2 2.71159 3.00479 21.5686
11 2 -1 3.92979 4.18267 1.50033
12 2 -1 1.47481 1.59647 4.74442
13 1 2 21.5305 21.5706 5.65133
14 2 -1 1.6611 1.56518 7.17628
18 2 -1 4.49855 1.65936 6.88137
21 2 -1 1.89348 4.04165 7.16618
22 1 2 2.9369 2.96216 5.63415
23 2 -1 4.56583 4.32973 7.04857
49 1 2 0.292653 5.57486 0.307286
50 2 -1 1.54839 6.91526 1.68393
54 2 -1 4.10483 6.84177 1.68713
55 1 2 2.85292 5.55483 2.86068
56 2 -1 4.25273 6.86868 4.20458
60 2 -1 1.64828 6.66891 4.32745
61 1 2 0.279478 5.51707 5.42597
62 2 -1 1.53976 6.67409 6.94017
66 2 -1 4.19644 6.94002 7.05752
193 1 2 5.37552 0.522995 0.448845
194 2 -1 6.95111 1.81453 1.91265
196 1 2 5.59881 3.05205 3.09765
197 2 -1 6.95992 4.15278 4.47902
201 2 -1 6.83125 4.39465 1.76613
204 2 -1 7.16594 1.69411 4.43517
205 1 2 5.58547 21.4891 5.73817
206 2 -1 6.84165 1.30189 7.10499
213 2 -1 7.29812 4.09198 7.02062
241 1 2 5.62127 5.68241 21.4414
242 2 -1 6.74105 7.12111 1.248
252 2 -1 6.7032 6.62964 4.01144
253 1 2 5.58411 5.75375 5.67476
254 2 -1 7.0407 6.88071 6.84303
195 2 -1 9.76774 4.28434 4.50148
198 2 -1 9.62501 1.87923 1.67367
199 1 2 8.37149 0.302589 3.02389
200 2 -1 9.6934 1.55918 4.44554
202 1 2 8.07781 3.06893 0.343912
203 2 -1 9.46882 4.44364 2.0265
210 2 -1 9.86572 1.43495 7.09203
214 1 2 8.24504 2.78163 5.85751
215 2 -1 9.62445 4.14112 7.0944
246 2 -1 9.42704 7.01811 1.69279
247 1 2 8.2792 5.61125 3.42281
248 2 -1 9.7612 7.1348 4.07726
258 2 -1 9.65054 7.21251 6.79392
385 1 2 10.8171 21.5828 21.575
386 2 -1 12.2002 1.60086 1.73172
388 1 2 10.8474 3.00556 3.06665
389 2 -1 12.4676 4.33386 4.45879
391 1 2 13.676 0.405359 2.89755
393 2 -1 12.1595 4.39777 1.66434
394 1 2 13.3463 2.876 21.541
396 2 -1 12.5916 1.55088 4.56203
397 1 2 10.9462 0.365815 5.62318
398 2 -1 12.3995 1.70319 7.33638
405 2 -1 12.4483 4.25622 6.93486
406 1 2 13.8138 2.89905 5.61863
433 1 2 10.6429 5.7255 0.302178
434 2 -1 12.2422 7.01924 1.31814
439 1 2 13.6016 5.65474 2.87425
444 2 -1 12.4409 6.92428 4.10201
445 1 2 11.1845 5.60536 5.65816
446 2 -1 12.3384 6.99096 6.96196
387 2 -1 14.9681 4.06593 4.17119
390 2 -1 14.7437 1.73616 1.44811
392 2 -1 15.0494 1.54247 4.17035
395 2 -1 14.7127 4.18095 1.48148
402 2 -1 15.1915 1.47892 7.0222
407 2 -1 15.18 4.19692 6.80151
438 2 -1 15.0443 6.87179 1.76382
440 2 -1 15.0694 6.49325 4.21999
450 2 -1 14.818 7.02349 6.95344
577 1 2 16.2578 21.5427 0.291322
578 2 -1 17.4512 1.3371 1.71404
579 2 -1 20.3626 4.32352 4.2906
580 1 2 16.196 2.88328 2.95702
581 2 -1 17.6181 4.22672 4.19383
582 2 -1 19.9748 1.73547 1.86465
583 1 2 18.8011 0.357638 2.9476
584 2 -1 20.3663 1.71122 4.43253
585 2 -1 17.4033 4.19418 1.53755
586 1 2 18.8016 2.87568 0.423974
587 2 -1 20.2053 4.22144 1.81128
588 2 -1 17.553 1.6915 4.06671
589 1 2 16.1298 0.434972 5.40088
590 2 -1 17.8914 1.75843 7.22092
594 2 -1 20.335 1.61111 6.78669
597 2 -1 17.9507 4.24768 6.82038
598 1 2 19.1623 2.94268 5.70427
599 2 -1 20.5957 4.28783 6.81602
625 1 2 16.0978 5.53592 0.370789
626 2 -1 17.8451 6.90642 1.52391
630 2 -1 20.2865 7.02691 1.69069
631 1 2 19.0269 5.59951 2.78838
632 2 -1 20.2658 7.13499 4.1831
636 2 -1 17.6836 6.90888 4.26847
637 1 2 16.4423 5.39202 5.43061
638 2 -1 17.5652 7.02431 6.94138
642 2 -1 20.3363 6.98828 6.8344
51 2 -1 4.17999 9.50508 4.36763
52 1 2 0.273313 8.39919 3.06751
53 2 -1 1.80747 9.52804 4.4892
57 2 -1 1.72728 9.70945 1.47137
58 1 2 2.93175 8.22886 0.372054
59 2 -1 4.16917 9.41001 1.59447
69 2 -1 1.48019 9.49897 7.06149
70 1 2 2.86224 8.18466 5.72828
71 2 -1 4.41916 9.37793 6.85689
97 1 2 0.318407 10.8297 21.5459
98 2 -1 1.47159 12.1746 1.4702
100 1 2 0.32214 13.4524 2.80532
102 2 -1 4.34708 12.2619 1.72657
103 1 2 2.92902 10.6714 2.98699
104 2 -1 4.23721 12.0387 4.32077
106 1 2 2.8341 13.4727 21.5792
108 2 -1 1.44047 11.7923 4.19755
109 1 2 0.335123 10.9633 5.70063
110 2 -1 2.00831 12.0381 6.69128
114 2 -1 4.41365 12.3064 6.80657
118 1 2 3.08336 13.402 5.4737
244 1 2 5.61478 8.16482 2.92259
245 2 -1 6.87886 9.41299 4.12264
249 2 -1 7.09717 9.72987 1.58327
261 2 -1 6.97699 9.51841 6.90025
289 1 2 5.59552 10.9623 0.273382
290 2 -1 6.8486 12.388 1.65486
292 1 2 5.57119 13.5908 3.00593
300 2 -1 7.00823 12.1298 4.26201
301 1 2 5.57482 10.8623 5.49695
302 2 -1 6.79001 11.9396 7.03524
243 2 -1 9.6283 9.62152 3.91715
250 1 2 8.17404 8.30239 0.273264
251 2 -1 9.62158 9.73106 1.58023
262 1 2 8.44689 8.49518 5.36118
263 2 -1 9.65556 9.69137 6.75754
294 2 -1 9.52311 12.3808 1.47196
295 1 2 8.2925 10.9959 2.76092
296 2 -1 9.8879 12.0322 4.23546
298 1 2 8.06889 13.793 21.5798
306 2 -1 9.57879 12.3555 6.85314
310 1 2 8.37822 13.4448 5.55381
436 1 2 11.0849 8.22535 2.89713
437 2 -1 12.3104 9.35046 4.48438
441 2 -1 12.4703 9.61904 1.79562
442 1 2 13.5751 8.3257 21.5514
453 2 -1 12.1806 9.52974 6.92345
454 1 2 13.7318 8.16316 5.58802
481 1 2 10.9218 10.9379 0.391427
482 2 -1 12.1787 12.1505 1.60748
484 1 2 11.0657 13.5215 2.90481
487 1 2 13.7293 10.8999 2.93648
490 1 2 13.4951 13.3996 21.5827
492 2 -1 12.2488 12.178 4.17311
493 1 2 11.1035 10.911 5.41138
494 2 -1 12.1498 12.3289 6.87712
502 1 2 13.6099 13.5824 5.57601
435 2 -1 14.9518 9.56837 4.03814
443 2 -1 14.9888 9.31335 1.57226
455 2 -1 14.8805 9.69593 6.92421
486 2 -1 14.8536 12.2281 1.51545
488 2 -1 15.0075 12.2342 4.28084
498 2 -1 14.7768 12.2819 6.92348
627 2 -1 20.3658 9.77566 4.31841
628 1 2 16.5113 8.26577 2.83068
629 2 -1 17.6014 9.49989 4.19808
633 2 -1 17.679 9.47878 1.61581
634 1 2 18.9636 8.30405 0.28128
635 2 -1 20.2876 9.65905 1.66661
645 2 -1 17.5566 9.71216 6.91896
646 1 2 18.8801 8.296 5.54385
647 2 -1 20.3997 9.74392 7.08647
673 1 2 16.1433 10.7401 21.3516
674 2 -1 17.4381 12.0153 1.40177
676 1 2 16.2294 13.4656 2.84403
678 2 -1 20.2888 12.176 1.56832
679 1 2 18.9881 10.854 2.74601
680 2 -1 19.95 12.3899 4.02626
682 1 2 18.7845 13.5294 21.5742
684 2 -1 17.5206 12.1944 4.22406
685 1 2 16.2708 11.0279 5.51999
686 2 -1 17.4097 12.2379 7.01902
690 2 -1 20.3639 12.2678 6.71794
694 1 2 18.9043 13.5625 5.18454
99 2 -1 4.28345 14.992 4.0731
101 2 -1 1.6679 14.6488 4.19232
105 2 -1 1.4354 15.1424 1.42623
107 2 -1 4.04929 14.9037 1.6415
117 2 -1 1.60313 14.8524 6.72521
119 2 -1 4.52777 14.939 6.72999
145 1 2 21.4146 16.24 21.4473
146 2 -1 1.738 17.788 1.58038
147 2 -1 4.42361 20.0353 4.23674
148 1 2 21.3805 18.9939 2.95766
149 2 -1 1.59205 20.1262 4.38643
150 2 -1 4.36367 17.5831 1.77504
151 1 2 2.91619 16.2813 2.8106
152 2 -1 4.08167 17.6062 4.51784
153 2 -1 1.26304 20.4854 2.04936
154 1 2 2.79964 19.1638 0.501409
155 2 -1 4.19905 20.5282 1.87306
156 2 -1 1.26746 17.5081 4.08102
157 1 2 0.377732 16.2414 5.52425
158 2 -1 1.61797 17.3687 6.75644
162 2 -1 4.3829 17.5843 6.9432
165 2 -1 1.44908 20.291 7.12836
166 1 2 2.83851 18.7629 5.51626
167 2 -1 3.97618 20.3513 6.68478
293 2 -1 6.9095 14.7907 4.14899
297 2 -1 6.71329 14.9095 1.60235
309 2 -1 7.07843 14.7699 6.90705
337 1 2 5.3599 16.2473 0.272736
338 2 -1 6.75736 17.6573 1.43214
340 1 2 5.65629 18.9884 2.91732
341 2 -1 7.00321 20.2229 4.20938
345 2 -1 7.01231 20.449 1.68946
348 2 -1 7.06058 17.3639 4.32098
349 1 2 5.67656 16.2115 5.4788
350 2 -1 6.95494 17.5294 7.02183
357 2 -1 6.73366 20.1093 6.8921
291 2 -1 9.88066 14.8174 4.26337
299 2 -1 9.75468 15.2067 1.56668
311 2 -1 9.58702 15.0177 6.8114
339 2 -1 9.64181 20.2007 4.34937
342 2 -1 9.37959 17.6772 1.59463
343 1 2 8.26072 16.3157 2.84659
344 2 -1 9.53748 17.5362 4.33119
346 1 2 8.24357 18.8058 21.4052
347 2 -1 9.91702 20.5122 1.66186
354 2 -1 9.60782 17.4395 7.00289
358 1 2 8.27007 18.9004 5.65234
359 2 -1 9.36407 20.4452 7.06056
485 2 -1 12.429 14.7528 3.95413
489 2 -1 12.3562 14.8949 1.24439
501 2 -1 12.3861 15.183 6.66019
529 1 2 10.944 16.2571 0.274594
530 2 -1 12.1315 17.5684 1.78654
532 1 2 10.9252 18.9638 3.07014
533 2 -1 12.2443 20.5297 4.32929
535 1 2 13.6782 16.2136 2.82202
537 2 -1 12.5941 20.3333 1.59053
538 1 2 13.6097 18.8463 0.423177
540 2 -1 12.1106 17.5427 4.18973
541 1 2 10.9327 16.2471 5.6523
542 2 -1 12.223 17.6542 7.05395
549 2 -1 12.1455 20.2145 6.97537
550 1 2 13.6015 18.8594 5.63586
483 2 -1 14.9222 14.8869 4.29853
491 2 -1 14.7699 14.8778 1.69912
503 2 -1 15.0468 15.1509 7.08933
531 2 -1 14.916 20.2901 4.1663
534 2 -1 14.999 17.639 1.45488
536 2 -1 14.6928 17.3849 4.15975
539 2 -1 15.1981 20.3543 1.74826
546 2 -1 15.1002 17.8504 6.70937
551 2 -1 14.9296 20.0312 6.84149
675 2 -1 20.4217 14.9833 3.95422
677 2 -1 17.5594 14.864 3.94991
681 2 -1 17.4166 14.6852 1.44292
683 2 -1 20.1675 14.7773 1.49017
693 2 -1 17.6328 14.8256 6.96319
695 2 -1 20.4703 14.915 6.69068
721 1 2 16.0752 16.2509 21.5678
722 2 -1 17.3667 17.5071 1.70517
723 2 -1 20.1554 20.6317 4.29062
724 1 2 16.3857 18.947 2.94939